8
energy = -42.7613816982477	unitCell = 0.0,5.43,0.0,5.43,0.0,5.43
Si	0.7696973609978504	0.6718246357006797	0.5792484321112711	
Si	0.6294290288721032	3.3556970549395686	3.3451340386074575	
Si	3.341055803923073	0.5889650998192795	3.425524782792087	
Si	3.39375	3.39375	0.67875	
Si	2.03625	2.03625	2.03625	
Si	2.03625	4.75125	4.75125	
Si	4.75125	2.03625	4.75125	
Si	4.75125	4.75125	2.03625	
