8
energy = -43.10576982429239	unitCell = 0.0,5.43,0.0,5.43,0.0,5.43
Si	0.67875	0.67875	0.67875	
Si	0.67875	3.39375	3.39375	
Si	3.39375	0.67875	3.39375	
Si	3.39375	3.39375	0.67875	
Si	2.03625	2.03625	2.03625	
Si	2.03625	4.75125	4.75125	
Si	4.75125	2.03625	4.75125	
Si	4.75125	4.75125	2.03625	
