8
energy = -42.872721322977974	unitCell = 0.0,5.43,0.0,5.43,0.0,5.43
Si	0.654390409064211	0.6067025365807501	0.7177395959204984	
Si	0.7397955542947428	3.2947550351984902	3.3983770311576667	
Si	3.442546897247463	0.6071545406431852	3.3900956603151196	
Si	3.39375	3.39375	0.67875	
Si	2.03625	2.03625	2.03625	
Si	2.03625	4.75125	4.75125	
Si	4.75125	2.03625	4.75125	
Si	4.75125	4.75125	2.03625	
