4
energy = -76.98408605499303
F	0.0	0.0	0.0	
F	1.225822	-0.124765	-2.828075	
F	0.143604	1.397989	-0.373235	
F	-0.204397	-0.044504	-3.077735	
4
energy = -75.80259024042259
F	0.12611310797214859	0.05961840687027875	-0.13507831494212957	
F	1.4523655192158804	-0.11492921127170362	-3.007135318910901	
F	0.31773039617222154	1.5326699450667927	-0.1580634217664318	
F	0.012079291100397016	0.19788899853118763	-3.2826952617603498	
5
energy = -46.25980882267597
F	1.0742989894345842	0.9357247567806128	0.39328271259651604	
Si	0.512074507294312	3.0578566579432156	3.4113220627383756	
Si	3.225639375398396	0.9400537581891166	3.8782967185578965	
Si	3.535481568023408	3.2568351108159965	0.5804228194482225	
Si	1.5833538564326632	1.6462515630961927	2.0062102534992916	
5
energy = -172.5808675705285
Si	0.6387951527063441	1.085641852421571	0.9762877218325406	
Si	0.7027665688594401	3.796697326292856	3.2440039706843695	
Si	2.97931294537233	0.36564020162365074	3.034894565680874	
Si	3.1714904979334246	3.2677500252522114	0.938266053096473	
Si	1.9603161305298173	2.327892277627105	2.462185158547725	
5
energy = 60.59204018710322
Si	0.843476904150202	1.0422836964835904	0.34512239741544104	
Si	1.0197567751906145	3.3709824724336843	2.9416999586792922	
Si	3.7426040947891184	0.9555072251858259	3.407025536259893	
Si	3.0571734933637655	3.337294066552972	0.9019502512644779	
Si	1.7771262064635134	2.5184615490842432	1.6365844526464288	
