4
energy = -76.98408605499303
F	0.0	0.0	0.0	
F	1.225822	-0.124765	-2.828075	
F	0.143604	1.397989	-0.373235	
F	-0.204397	-0.044504	-3.077735	
4
energy = -34.30547854943058
F	-0.16123658022581816	0.11121933941580742	0.016391208027032367	
F	1.3021302326209638	-0.02023668459261778	-3.0089155367662728	
F	0.21635221424618778	1.1685974846072318	-0.521495340433056	
F	-0.02497363405884212	0.0145264879398853	-2.8888790424876505	
4
energy = -69.48931207100766
F	-0.13374184809353723	0.2442161969928821	0.027468032765002925	
F	1.2249595535231295	0.028854496130945886	-2.8530414272197464	
F	0.3694878442622582	1.3577505329631174	-0.5430854687650988	
F	-0.1708092807338702	0.09019181464576707	-3.079603432111434	
4
energy = -21.4845375525667
F	0.04110146177296753	0.08605699323576044	0.010531899355944618	
F	1.1397661799419507	0.07580391366599322	-2.687930879377882	
F	0.00884978024826294	1.3226703409543767	-0.42520842678171616	
F	-0.00971439301609478	-0.15872358933131553	-3.007048551014824	
4
energy = -71.82931478635953
F	-0.10542721135453592	-0.0550903668405921	0.2051119671018507	
F	1.4753753325047092	-0.1364688870828007	-2.8750474429943256	
F	0.31102092762555394	1.2531132024509526	-0.21057458883985242	
F	-0.14109186907174248	-0.2528638999469613	-2.9226509050869693	
4
energy = -62.36459726241361
F	-0.15559910260199045	-0.08627647910320674	0.026801678262433903	
F	1.3787775662563222	-0.2366190014463817	-2.656024070043084	
F	0.25327041146875007	1.6432279030574297	-0.29940722495786287	
F	-0.1011632788112925	-0.1636957056674847	-3.0752254887163555	
4
energy = -67.72747847101918
F	-0.05008400301460314	-0.24287926892614653	-0.21136080002849955	
F	1.1002974378293247	-0.09415600678829371	-2.8772836259001675	
F	0.15623407488641355	1.4413036743515404	-0.2148981725726829	
F	-0.39625982194904813	0.12223462002212453	-3.050682104356569	
4
energy = -46.866234077766244
F	0.22427989770853402	-0.08914999453006855	-0.09803276313063308	
F	1.1911310528598327	-0.22568591080258538	-2.7184753976871128	
F	0.056614434946911096	1.2014163974083916	-0.30972417571307204	
F	0.037539362516369246	-0.17639297962584582	-3.2499038505240105	
4
energy = -47.91865179940962
F	0.24462345583628264	-0.09566518955736691	0.12352928160413978	
F	1.421196132695858	-0.06808639577892438	-2.7982783704381173	
F	-0.10195593643440587	1.6405223686106312	-0.45502076239903666	
F	-0.3748356968109134	-0.11189689894421652	-3.121258025268316	
4
energy = -52.95888418926688
F	0.16664344306657825	0.16772635972293265	0.007844806881843414	
F	1.2651799467516622	-0.0047390391346802535	-2.677117333277249	
F	-0.05133363087895565	1.397615095079279	-0.23123827499792726	
F	-0.07242203145597581	0.08709144956177399	-2.9180185394515306	
4
energy = -69.87095129259865
F	-0.14969119913378387	-0.0548742702635569	-0.19943422999838134	
F	1.103986362067551	-0.3527196210440833	-2.812959735103009	
F	0.2587731771254536	1.5440021909904509	-0.3839566813327103	
F	-0.19855783619298173	0.1815738313713583	-3.045412093452826	
4
energy = -56.28337455012962
F	0.1377984520361365	-0.0947313099580091	0.06955224618694517	
F	1.4474751603286073	-0.10624972455029434	-2.953606950165425	
F	0.36099833175828705	1.5055757768633466	-0.31701344000377407	
F	-0.3803200772915727	-0.12297152241161453	-2.997059570716438	
4
energy = -73.02372403090595
F	-0.1063589765695459	0.019970128953319954	-0.08418507216887483	
F	1.0024529883976734	-0.08474035953713126	-2.766764564589127	
F	0.2891019789278477	1.5291411917919626	-0.17020079446061442	
F	-0.3855576461371918	-0.013553340318623444	-2.956267084355622	
4
energy = -68.55928040117932
F	0.22024896550552492	-0.13099535876824114	0.1362574500295623	
F	1.2873164969785011	-0.25241068841568165	-2.7176727459172163	
F	0.34929015796745355	1.1554353284481877	-0.5693163283641096	
F	-0.10138278743939583	-0.09310604424106413	-2.853930113988941	
4
energy = -65.28886751316837
F	-0.20036225519568052	0.22785292852071354	0.22431181240583076	
F	1.2315650389955444	-0.3607422324575393	-2.8031986660438553	
F	-0.07970035733447728	1.3514070082194993	-0.4425029454260915	
F	-0.17397986212295302	0.1853378856631862	-3.0317476021434513	
4
energy = -63.35834586694414
F	0.08409298568162693	0.10187332533480714	0.09309501191019637	
F	1.2945914184539342	-0.21493112632571137	-2.7410388648113466	
F	0.38513796251968196	1.5036486839003933	-0.36859176686043205	
F	-0.43621163587573275	0.1042684820047065	-3.157001525223326	
4
energy = -65.56187728820446
F	0.06489627177370888	-0.21303899866659776	-0.1113745237865279	
F	1.0937256301069767	-0.2810287276180212	-2.593051007819997	
F	0.10840380539109523	1.3835598029592933	-0.2605638433346821	
F	-0.42674911089695516	-0.14320110817360326	-3.1733410002877065	
4
energy = -66.38003404614759
F	0.08894316751377074	0.06263688650912236	0.2279229047510939	
F	1.3464480270868906	-0.03161277743693296	-3.0727300089038554	
F	0.16852317313694948	1.4628886074472007	-0.2902737727513784	
F	-0.3723224166753355	0.004467890513361092	-2.850818614522116	
4
energy = 42.16421823327417
F	0.16818422974092606	-0.241238212224889	0.14847516122925208	
F	1.1060046667795347	-0.37460900116303625	-2.9484650861285653	
F	0.33402170251410207	1.585740793385677	-0.3292308442058388	
F	0.03681413389405375	0.018876509910573977	-2.9178602054107508	
4
energy = -72.67204867538565
F	-0.0637070638811314	0.18170045784166455	-0.008408762138230885	
F	1.3033490722733734	-0.22228517973128537	-3.00646007781926	
F	0.03711381740200198	1.4899595430106771	-0.3145105215103593	
F	-0.10101199248515036	-0.19942362556622906	-3.317908111498577	
4
energy = 66.63293254554875
F	-0.14918830197391986	0.239763886204659	-0.13743056828326494	
F	1.001400972410809	-0.23546706329812883	-2.980070595680591	
F	0.3464245471649223	1.5169730951423495	-0.34877154024022244	
F	-0.038174819268360416	0.14528683368621909	-2.834161151609658	
4
energy = 76.50918584274683
F	-0.08274991752075278	0.07113749880665099	0.21539472986510927	
F	1.0200540234877291	-0.021678138101436414	-2.6858076575247813	
F	0.17356992976227598	1.5547722263708363	-0.5088811509582621	
F	0.04224580062565386	0.1885540364163556	-3.1671435559613985	
4
energy = -49.03367521872499
F	0.12420675900577166	0.05025630307281992	-0.001159912225073445	
F	1.2021809433248027	-0.0751820908677082	-2.8303785236427093	
F	0.16560702878005273	1.3236217323686184	-0.26880338868453313	
F	-0.06458896142951637	-0.09462556968671455	-3.0317683874260055	
4
energy = -48.72285689884393
F	-0.07444033942075118	0.2307173102247802	0.17438094193925124	
F	1.0620759335740684	-0.02180962400119167	-3.0678814988328167	
F	-0.06297497108057776	1.5384258833565945	-0.1391826922464971	
F	-0.16932774053804112	-0.22890922462896657	-2.9631197281240356	
4
energy = -45.70075935766664
F	-0.012883826572242962	0.07432342122775465	-0.2257572962476267	
F	1.3883404232528282	-0.27197837516602696	-2.8916427843686314	
F	-0.019016363737491604	1.265359862418263	-0.5884574313992526	
F	-0.04967230390401106	0.20402890427413406	-3.2833615813026875	
4
energy = 12.762196986864211
F	0.030838078064550523	0.21673159249748314	0.010186146229710424	
F	1.0631600786951387	0.008532885074491972	-2.841179131964759	
F	0.26991545384591253	1.4334450628435367	-0.5383651853150195	
F	-0.0658796072746402	-0.09112163246654399	-3.0859896561727327	
4
energy = -74.84071239006542
F	-0.040146619609332246	0.03043242645455302	-0.22970432523533213	
F	1.4092367626788502	-0.37128267389599184	-2.791391607363507	
F	0.21039403447440835	1.4641878922522877	-0.22035431083421786	
F	-0.09108455207648042	-0.2772694612075267	-3.138076394564128	
4
energy = -65.87789767159599
F	0.03194022221673165	-0.13458305544474608	0.15207059439017906	
F	1.2843311843677196	-0.015360588738259726	-2.7683416647890784	
F	0.25632952734679	1.3442178646274694	-0.4386930941919601	
F	-0.29112676658192477	0.032972713551555274	-3.286217497934939	
4
energy = 22.02154540312161
F	0.1680152251283809	0.07689015767448781	-0.02447024672806536	
F	1.4114379181131547	-0.36786738997888985	-2.8038316059534876	
F	0.1080889647222294	1.1870524784738556	-0.3109706893967558	
F	-0.15331070164254462	-0.21210300516778513	-3.277572563244852	
4
energy = -70.53024522044231
F	0.03538156920639224	-0.21222968541953185	-1.7487556359013778E-4	
F	1.0600561010303235	0.029474651249643782	-2.799508063803679	
F	0.03304830933101316	1.410682406061762	-0.34721114308943146	
F	-0.4188994563514213	0.05691794204501392	-2.8737002189981364	
4
energy = -63.09503394708204
F	-0.16691018202091712	-0.21853382327112847	-0.1689802608394465	
F	1.180835478023183	0.025342575639241263	-2.7203278620520748	
F	-0.06463119514047067	1.5976122707258933	-0.28497405812517357	
F	-0.2201388153817559	0.017702908071791576	-3.2418225274176455	
4
energy = -61.677044348881516
F	0.22873698058161046	-0.022446076310578544	-0.24277895403975397	
F	1.4420688689574253	-0.23255258536726536	-2.676971782936222	
F	0.3794499124357442	1.4033085073195808	-0.41959285630020493	
F	-0.2592291814087694	0.15230445683368798	-2.8557113751966634	
4
energy = -68.70685293659707
F	0.1523769463050743	0.10947897474434515	-0.019829586680883027	
F	1.3220684742107025	0.04172085585506309	-2.5871630550783977	
F	0.33254666572426694	1.5376972153310193	-0.2561043135985244	
F	-0.29390896102023717	-0.1764557962396141	-3.0265735946325814	
4
energy = -18.86998634383155
F	0.14393835474717037	-7.130246174899546E-4	-0.07032496300275298	
F	0.9764050173395571	0.12077394490049322	-2.626843124914093	
F	-0.06255076469971188	1.3624214205425673	-0.16244956894724855	
F	-0.012184434729940352	-0.2235674226906018	-3.2131199627947495	
4
energy = 13.19788027441307
F	0.17564320059948973	0.20964225629081185	0.048928441482812335	
F	1.023304854188284	0.00357074268283282	-2.593778743176302	
F	0.1559076566213285	1.5240084092794421	-0.32218004056666993	
F	-0.08723660925302212	-0.03268078800451581	-2.9294368084800686	
4
energy = -76.03744075543692
F	-0.1696073451478769	-0.151979324327423	0.12480103357316447	
F	1.174191929310072	-0.03414287588742619	-2.608420233805329	
F	0.13764488869264901	1.2799144300001597	-0.16917844863585152	
F	-0.30265747177431496	-0.03424609242410721	-2.8793376182063057	
4
energy = -73.65762417710489
F	-0.0890664319031847	-0.09803198656212253	-0.09240777714777537	
F	1.2794274845201214	0.11285799813482407	-2.7697019402733867	
F	0.16833651321706344	1.2706052059604813	-0.13680763708769028	
F	-0.12791340170327026	6.981090302723841E-4	-2.89655569142844	
4
energy = -62.48010171581313
F	-0.017157470730113755	0.1976936345564757	-0.08047902439212129	
F	1.3617422183207488	-0.36789654013704487	-2.9669720774051536	
F	0.032845419379859464	1.4463972938074363	-0.46942738819258173	
F	-0.004305009527569681	0.03376205030378625	-2.861447171557887	
4
energy = -72.43220067366349
F	0.01696139062776758	-0.10297657594673132	-0.009608511508151119	
F	1.0716716016583636	-0.31503256349368364	-3.0233601604588105	
F	0.09728526153463346	1.17272667077678	-0.5253714767016928	
F	-0.37268867357004415	0.03755294223893128	-2.996807924915811	
4
energy = -74.80236552777271
F	0.19389112431954142	-0.1201355319621919	0.1824062449157275	
F	1.2204969215700134	-0.14940031950693689	-2.7106363143441268	
F	0.36514636480117907	1.2118273058968996	-0.4472549109347409	
F	-0.13584616701950986	-0.06299529220698132	-3.3179656906490433	
4
energy = -76.38476965401713
F	0.06449857787115809	-0.09916165022097412	-0.12599149146969169	
F	1.1267605243606398	-0.2545950068021871	-2.930987965185587	
F	0.1987528543719458	1.3124940098057625	-0.2878832258016188	
F	-0.30063462211537006	-0.06428020957462029	-3.025493094868528	
4
energy = -75.80259024042259
F	0.12611310797214859	0.05961840687027875	-0.13507831494212957	
F	1.4523655192158804	-0.11492921127170362	-3.007135318910901	
F	0.31773039617222154	1.5326699450667927	-0.1580634217664318	
F	0.012079291100397016	0.19788899853118763	-3.2826952617603498	
4
energy = -59.57600471587015
F	-0.025812045883146173	-0.11523961020215484	-0.05878704468856444	
F	1.0035865404946525	0.03436726529069263	-3.0588282704578633	
F	0.09094856186439376	1.1720411106255983	-0.20626835799319837	
F	-0.331798323203046	0.08926516436662217	-3.114459688560528	
4
energy = 124.46953636092435
F	0.023673791038090364	0.20044497337349043	-0.09975590533502515	
F	1.1310093727358455	-0.2974584550156762	-2.8710134782577117	
F	0.02756213150787995	1.3036359009772398	-0.24938357674116213	
F	-0.013710726296126852	-0.10204813589776658	-3.099114446422945	
4
energy = -68.31329061805465
F	-0.13680045598921686	-0.07544576025166577	0.08078199467086139	
F	1.3804838530960382	0.08910036194353495	-2.9768313191237397	
F	0.24631124995456233	1.3646198221955215	-0.14866813634155368	
F	-0.291843848393076	0.15742838926605346	-3.1006243778536597	
4
energy = -57.23893350410668
F	0.10837814478713709	0.03488335740197901	-0.02667291973942404	
F	1.424615855661442	-0.33387688496641416	-2.8870987406836535	
F	0.060149611696497796	1.5970414029386046	-0.5655882645745824	
F	-0.3915287979152342	-0.1197326015408799	-3.004763694127478	
4
energy = -12.575718167979062
F	0.1581527908800956	0.13804241248439514	-1.2222457815258547E-4	
F	1.0411404128036963	-0.3010301029115779	-2.9970547430721965	
F	0.15555607144608974	1.319227034676664	-0.5383349823620207	
F	-0.01838738305568166	0.18141189146865216	-3.2798367859091666	
4
energy = 21.276858755430844
F	0.03007160522253588	-0.11726746580713782	0.050884089422882084	
F	1.0007096694668574	-0.14265307594111587	-2.6908918537641333	
F	0.17254427815818668	1.5578387270450376	-0.39161408823128263	
F	-0.04257594069449211	-0.0753369101010072	-3.180077765570299	
4
energy = -67.38607862779216
F	-0.04327350551702641	-0.12441602309475897	-0.14994594313692894	
F	1.182195540165232	-0.34683590712038265	-3.044967549674162	
F	0.30242072948087545	1.4793003090178345	-0.3296996032355293	
F	-0.07972862408580095	0.16519129875147986	-3.048042850641478	
4
energy = -65.1356816105027
F	0.16631461569771744	-0.21637697288090957	0.1849614916889259	
F	1.0485485023553178	-0.23953253703963817	-2.801585984174197	
F	0.31575147129677034	1.3273637516182504	-0.16576851596898673	
F	-0.26207228493377965	-0.2155833226307075	-2.9511182713261412	
4
energy = -61.45079371402009
F	0.24537834629720573	-0.0573115502176445	-0.006936202059899033	
F	1.2905702729701343	-0.17404823695601118	-2.946861341782288	
F	0.2127830281066313	1.201029076214211	-0.5091877625784977	
F	-0.4516815849247333	-0.17848286874490388	-3.3066998888722434	
5
energy = -49.14377613550582
F	0.67875	0.67875	0.67875	
Si	0.67875	3.39375	3.39375	
Si	3.39375	0.67875	3.39375	
Si	3.39375	3.39375	0.67875	
Si	2.03625	2.03625	2.03625	
5
energy = -81.55063219459836
F	0.4516809650106618	0.3364066678333498	0.3447785331120451	
Si	0.7031254465655824	3.3284928441393697	3.394861873500061	
Si	3.4201063836311243	1.119560123045415	3.6640275355349026	
Si	3.1904915629919506	3.3471234601791515	0.22521400711141504	
Si	1.7287843727135161	1.8682322091595918	1.8640745100867746	
5
energy = -19.139056794949425
F	0.234810264452066	0.4828341224788999	0.4742703230282461	
Si	0.8433031465913486	3.2385997525490584	3.0542103002932013	
Si	3.796320072985054	0.34341994985064894	3.0580093656984255	
Si	3.5538729998486986	3.7299035700502343	0.594054649849319	
Si	1.7050474594325238	2.471543563069682	1.5450591888705647	
5
energy = -37.8510209242787
F	0.7084472995836785	1.1253802248850313	0.7039345156646423	
Si	1.0866919051875803	3.586985294468757	3.7894059892799383	
Si	3.1953761439338892	0.25681872453780163	3.4288943657951116	
Si	3.361319027984634	2.9805672963929988	0.29325158561707243	
Si	2.017143434562741	1.5505686641967844	2.1901552023338633	
5
energy = -46.25980882267597
F	1.0742989894345842	0.9357247567806128	0.39328271259651604	
Si	0.512074507294312	3.0578566579432156	3.4113220627383756	
Si	3.225639375398396	0.9400537581891166	3.8782967185578965	
Si	3.535481568023408	3.2568351108159965	0.5804228194482225	
Si	1.5833538564326632	1.6462515630961927	2.0062102534992916	
5
energy = -84.63805948004517
F	0.5268320087896248	0.4482460811993383	0.689858378753226	
Si	1.1372580968301234	3.464720261102637	3.548056474018347	
Si	3.0458379694507363	0.6456576570341925	3.105845704059113	
Si	3.794441974568801	3.3431436916760995	1.1341337152560809	
Si	2.2854191943250592	2.376523536923748	2.30010278069166	
5
energy = 4.391798222359952
F	0.7313623155288914	1.032857651659754	0.5483516891403	
Si	0.7876952794389478	3.2003039107140823	3.4444004381417637	
Si	3.0791304386691016	0.388480776360152	3.3057600483096916	
Si	3.7343088592743348	3.18742109589381	0.8976004133798038	
Si	2.079113991113477	1.8485953081338515	2.4968374015628894	
5
energy = -96.29992959095974
F	0.1851318918105912	0.6826294392619613	0.551205184377334	
Si	0.6782817775731785	3.7256785647874753	3.4288458267456425	
Si	3.5398011689927777	0.22756183948401432	3.2739235438781904	
Si	3.145022374636468	3.676776125490834	0.4622653658926654	
Si	2.1314824722651284	1.9157474913571089	1.9108473519607703	
5
energy = 87.34828765589815
F	1.0055610422120822	0.663239712291689	0.3487440848843557	
Si	1.1155617071930952	3.8721310821290853	3.4729541132675052	
Si	3.492065146130795	1.1282672497255715	3.155231322166414	
Si	2.9307727579699137	3.1452885752676885	0.9315840258204967	
Si	1.7414130336047582	1.9868916149673022	1.6329836864843008	
5
energy = -30.22209912336171
F	0.8766331203199538	0.9032300065583019	0.4659545740139195	
Si	0.34563609367700354	3.218259281470792	3.3327934348615793	
Si	2.918383456255908	0.7463823623950651	3.3897096435634424	
Si	3.1728262891572676	3.3676829536759767	0.28631843844640825	
Si	1.895206945204783	2.304407747237886	2.016866420717117	
5
energy = -79.52832794657954
F	0.46431160158868423	0.8960826647391477	0.6218874662368673	
Si	0.3624998828758309	3.2241586428389617	3.8021120733188596	
Si	3.867988464441971	0.45646295947502213	3.375097149442664	
Si	3.4469191913948762	3.5759065783513826	0.44837741057749236	
Si	2.2585914424899	2.152297186617524	1.8502532919647559	
5
energy = -66.27979737943102
F	0.7332548931412823	0.9174780455145305	0.23101511521433749	
Si	0.3149779303548743	3.134268005762671	3.8454701907625104	
Si	3.8436597340089262	0.808944395771415	2.942149283126324	
Si	2.998184438787875	3.3722865981877357	0.5136264293575551	
Si	1.8180751213693331	1.558767112591963	1.682131699913545	
5
energy = 186.72545333290896
F	0.8499246245766563	0.9984928278449603	1.0318616795888667	
Si	1.012361766390919	3.7973973694931504	3.210700449248396	
Si	3.1915728374433803	1.0128171885445487	3.6417371948789343	
Si	3.2095910536652488	2.9922467871243503	0.8209285984483157	
Si	2.052612595741623	2.3063241154982688	1.845301379253136	
5
energy = -82.87674990342742
F	0.7489647606167948	0.2865350336309408	0.738788648680487	
Si	0.871003663538852	3.2414954657243094	3.4906994596140883	
Si	3.8340741288668965	1.0960070031685665	3.6389303331912575	
Si	3.5462859026432025	3.3947668589758755	0.2806231161886955	
Si	2.4527205018909313	2.0609988044181087	1.6837409516014086	
5
energy = 99.23642731964998
F	0.8217192587137904	0.7737870382322428	1.0606597305661318	
Si	0.9862146158447256	3.1027943496031947	3.3904661322566465	
Si	3.240958161942192	0.23819412383321237	3.124702149810247	
Si	3.178238379575395	3.0830042690967754	0.82202936577979	
Si	1.7561535194445557	1.7682348734488875	1.7901164504317388	
5
energy = 260.132144174758
F	1.0401564010967057	0.9450439373464856	0.464990838014697	
Si	1.0683154769038672	3.102203951319638	3.0223163601137353	
Si	3.468642711483378	0.49428649725631046	3.070992432926996	
Si	3.8019838949030964	3.4227421524477557	0.7871086212575595	
Si	1.6170557902471354	1.9616004410609902	2.2360864742866933	
5
energy = -79.5933632400644
F	0.4213414600736123	1.0816675091900247	0.23688183532449425	
Si	0.21544168755790427	3.8040966424184686	3.5374545298565883	
Si	3.8848438026780374	1.0407611416266542	3.0600116114510993	
Si	3.2560332158259655	3.4217373173393066	0.210478840300921	
Si	1.833081897432285	1.6712045802488142	1.9052260260194687	
5
energy = -76.44912141439849
F	0.9791835606710736	0.8755975085965387	0.6240958619354309	
Si	0.20466411895307224	3.6184561117417378	3.844467418602642	
Si	2.9957386214143096	1.033997824128659	3.426378800702086	
Si	3.6565060504113305	3.5329240803050905	0.20372664094585102	
Si	1.7997027741572	2.394294138564629	1.8347783763050638	
5
energy = -63.43288005794478
F	0.27902584251516316	0.3173852799304554	1.16301543606735	
Si	0.29035199229346653	3.72554444559664	3.4576856183892115	
Si	3.078710284286863	0.4866190203266737	3.0550583616780767	
Si	3.275735069300443	3.4796753857600757	0.436633750577637	
Si	1.9575709308655198	2.531972748617237	1.5752790119448952	
5
energy = -61.05215612228437
F	0.6066932139775087	0.37711868607989185	0.4440654689767337	
Si	0.28024894331257155	3.2642062753647068	3.247952829443164	
Si	3.0384070361943585	1.1725307904676723	3.4970713153310893	
Si	3.1484321285321677	3.762018180447616	0.5541019158092857	
Si	1.8782159305135577	1.8793762423259988	1.6616452518699307	
5
energy = -69.73361571163107
F	0.18416664295273022	0.6180538708471385	0.9917928454063263	
Si	0.24408249031086615	3.5079464412975847	3.4554657987085338	
Si	3.178305948480703	0.34521903355760986	3.494318478080362	
Si	3.4770124718208955	2.963276990424432	1.15003830438881	
Si	2.0293447173842463	1.9519394585927774	2.3585239312243385	
5
energy = -54.370131374224115
F	0.619274282666505	0.6427728367892657	0.18713564865085386	
Si	0.2947083157833994	3.1056556494046825	3.4633792998084405	
Si	2.9440577218371886	0.9378735127065111	3.2561448704827507	
Si	3.6990642192887018	3.878735614563032	0.6512823232890358	
Si	1.903806860846363	2.0463960708736506	1.8463246279334982	
5
energy = -3.346007075849201
F	1.0621152531866889	1.00641716566286	0.31184436982371855	
Si	0.9532723149051009	3.555755563639944	3.0811474558514282	
Si	3.7757262793694832	0.18801868530084753	2.919801013943662	
Si	3.008141480392991	3.2099335725097697	0.5102511375408617	
Si	2.3031059257673694	1.9580222003122336	2.0517938487233596	
5
energy = -53.01132882829061
F	1.1265858874623658	0.594572184048072	0.5993467451098167	
Si	0.23896055172012654	3.4421502114671734	3.0545704771181112	
Si	3.2642525254971653	0.8690141240450493	3.2253906046398466	
Si	3.541288656099518	3.15401469560164	0.357496635461624	
Si	2.365033984459952	2.3924669575569073	2.0309614234071587	
5
energy = 434.24616722504163
F	0.8268904261673881	0.685980633653853	1.0098944692027738	
Si	0.36916977062673817	3.181591214806411	2.9175087908045034	
Si	3.0522053015108948	0.8685924157478782	3.082714546093232	
Si	3.0650226778407066	3.6309266223282384	0.7707408623065456	
Si	2.3391139417484013	1.553177256379005	2.1053952239773297	
5
energy = -71.9226746609714
F	0.2462783755593786	0.5297776448095491	0.6435644281149863	
Si	0.18407305828754728	3.3708515570149147	3.260310706002673	
Si	3.386747229794653	0.30795626736891446	3.2377169081423363	
Si	3.3249974162072053	3.506279643548854	0.9111864332281635	
Si	2.0816945396344897	1.6234787809624553	2.2114519602014244	
5
energy = -0.8919624079508033
F	0.8221366800940367	0.36120815227906533	1.0273682239365178	
Si	0.1958523206404511	2.9001595154156945	3.8561469404624553	
Si	3.109668320892978	0.2454373967274871	3.3713470544596946	
Si	2.98151152212389	3.4986401220911922	1.1476562825874614	
Si	1.7385687313502034	2.1177825733081885	1.6778155921262425	
5
energy = 12.368619685988937
F	0.6597731438966802	1.0492152512566053	0.8786775711360594	
Si	0.5251331799780662	3.2748864491014276	3.0009920084590567	
Si	3.4779373597773304	1.0117148893679886	3.790743059750824	
Si	3.8442687844834285	3.4790111333513156	0.45959328163560886	
Si	1.7467980808260233	1.7264072014445921	2.294984387473702	
5
energy = 7.140220848927457
F	0.28523479555240516	1.1015721427799807	1.0791507986888331	
Si	1.0508220649263413	3.346995708599882	3.3677099832233837	
Si	3.4770772887820423	1.0709743532212104	3.2421856245971448	
Si	3.7987453144078134	3.853276117862139	0.507619972220199	
Si	1.6707026989326588	1.5569284035759487	2.12782875310587	
5
energy = 62.79528587802172
F	1.1757984574353462	0.7497436980436056	1.1455751976205866	
Si	0.3853333716913999	3.6264088097627174	3.2203812388563327	
Si	3.3647472557906353	0.9746290861107922	3.2390291058656504	
Si	3.8243392576821487	3.4056742377166307	0.4920396557679073	
Si	2.1612379653419573	2.1755874513736804	2.517181607818471	
5
energy = 438.1499576718221
F	0.24637006267364658	0.7120952389695988	0.26641377690591317	
Si	1.1564882434130763	3.6045537986112137	3.697165991232174	
Si	2.9339236519525853	0.9220900291236015	2.953762642865992	
Si	2.943448442351393	2.9304533909365147	1.0530468805511903	
Si	2.39645461013727	1.6822930250997195	1.770174428203207	
5
energy = -58.874732308797114
F	0.5643425765526086	1.1717501540141766	0.24687599542444616	
Si	0.46420415651122926	3.2870879805702837	3.4621903856094405	
Si	3.51051845448906	0.8528279402875767	3.567690232104892	
Si	3.6918455593226964	3.333117019181626	0.6909760772417737	
Si	1.6592114269595284	2.0774056895177186	2.085179875876939	
5
energy = -84.56168944139905
F	0.6393888660443254	0.36349248899866615	1.1182994875693302	
Si	0.2824382602116534	2.9739413444639777	3.5467192061861583	
Si	3.5075519839985376	0.7337295818219017	3.5218889118970487	
Si	3.746458832478093	3.372004897443089	0.5758255749881728	
Si	1.573833781942517	1.6422976470797237	1.8886881485922409	
5
energy = -36.64016824939443
F	0.8386050369791254	0.7565014252877152	0.7350608490090158	
Si	0.37354501378056737	3.8674472715902843	3.3764552050203163	
Si	3.7736983234121633	1.144377180279136	3.399449285935149	
Si	3.5511662755727884	3.044270896573318	1.0167904316234777	
Si	1.8535457677618246	1.9588953323995186	1.6720735765981298	
5
energy = -15.639591519400547
F	0.8975853515591827	0.9043379398969517	0.322631218748504	
Si	0.7857836599274478	3.709451794384951	2.9579137448199218	
Si	3.3983711921116138	0.9966232152117311	3.1864899441528918	
Si	3.7276684542219707	3.0243159799981925	0.3508770078228729	
Si	2.429494366730489	2.1466109657474775	1.7850924437967928	
5
energy = -48.36696587356792
F	0.41820844510166266	0.9556022458704154	0.4098685300880325	
Si	0.25390535138448067	3.596068006667415	3.611320573185008	
Si	3.6195780487388083	0.84055887922509	3.414589311129415	
Si	3.1336112651247348	3.0640794938508153	0.18957766533913034	
Si	2.1242208876048556	1.7681270093363965	1.6843034762918019	
5
energy = -54.597499663977324
F	0.5376962475078855	0.5924419352805292	0.24685536472598668	
Si	0.9624709285942693	3.568774546392574	3.818762724634204	
Si	3.1918418103824924	0.5567002428745347	3.469236674382921	
Si	3.191311809821841	3.4073272321799273	0.6948431937325773	
Si	1.5959185774673936	2.3811633152722207	1.6295489956506173	
5
energy = -41.678568832540115
F	0.32934789226848604	0.8732500976928825	0.5621594824087537	
Si	0.32161896344449026	3.4571733844627675	3.030485014145791	
Si	3.0568354907671584	0.27530583029877465	3.197256861706352	
Si	3.064732727670376	3.3031544075277406	0.3072133106667756	
Si	1.7002617916096519	2.299333520133635	2.2921121611028057	
5
energy = -82.6865163969504
F	0.9112595024526668	0.19381080195020894	1.1596588274894866	
Si	0.542874113291401	3.467527326962054	3.7336344807174227	
Si	2.912206735333961	0.5049560312281499	3.881969328351008	
Si	3.5295435445588703	3.8679023069844796	0.2010639140788849	
Si	1.8496147940332472	2.4723584176302413	2.0168012250694107	
5
energy = -5.801126358507517
F	0.6470588227429607	0.7483408806108274	0.7639066760628311	
Si	0.938934000312746	3.222114295687276	3.7734335092302684	
Si	2.9494256758375563	0.3698178081310115	3.0849855872973335	
Si	3.30757805101956	2.9301840997229998	0.18420120241893545	
Si	2.4489114940593866	2.114083706088987	1.7738625195271351	
5
energy = -25.18933468316808
F	0.49539681964335736	0.4905208937814234	0.8030594951196959	
Si	0.5412099841758649	3.165095536243049	3.16971817818671	
Si	3.7534241543357685	1.1547199795779353	3.652345149961402	
Si	3.27037276613605	3.0380457456642542	0.7435458463419485	
Si	2.307915464759126	1.963239870011709	1.9749716546038183	
5
energy = -83.52216929531588
F	0.6061019027003152	0.3940607422487933	0.20289093779357426	
Si	0.9146228238106717	3.052773711792578	3.572229601743671	
Si	2.9020339448729464	1.0159907048152705	3.2983869195923545	
Si	3.3450613974035397	3.839455411338429	0.2592893727388472	
Si	1.7750610179954358	2.391547366328466	1.731916927273629	
5
energy = 9.930144680020693
F	0.4856792099374463	0.18330063269474905	0.9555236658384908	
Si	1.0356916882310336	2.961592688075516	3.5851538981601223	
Si	3.0402027105538103	1.0850266647467472	3.2083567363957455	
Si	3.8604938063113785	3.8852381606923556	0.317668977559435	
Si	2.1247205729531524	2.3234547271710233	2.1378577406483164	
5
energy = 39.541149520717354
F	0.27919556398396406	0.2130613840172627	0.29078353768084764	
Si	0.47588788409203053	2.953237428287444	3.2919549210767873	
Si	3.5098406343839414	0.44303208791118265	3.106291032417178	
Si	3.4309616352265677	3.35121309490855	1.1105552975449258	
Si	2.271160954733932	2.4053933521299187	1.629378812619728	
5
energy = 60.08821471891984
F	0.5820643805364816	1.1746796297948725	0.7994894108299321	
Si	1.0345867521440422	3.4243648100384556	3.135701558191016	
Si	3.588345212674832	0.6850951418668453	3.2099122310489396	
Si	3.2109707227649027	3.362100476042602	0.43613622433469046	
Si	2.002666720399187	2.0768116771629055	2.400308050811674	
5
energy = -59.37295313946823
F	1.0079522624999138	0.2616967405134547	0.8636964226773011	
Si	0.7600687315692087	3.8349745029491586	3.568168847904543	
Si	3.0110905510895165	0.6534311087195872	3.164193296151202	
Si	3.7938978820337583	3.4415837113774677	0.8527201683134606	
Si	1.8504935981441526	2.250922267679184	2.0461612417953448	
5
energy = 60.55390977454329